# vtk DataFile Version 2.0
VTK exported mesh
ASCII
DATASET UNSTRUCTURED_GRID
POINTS 502 double
-0.050607919693 -0.00180609233212 0.00559063674882 
-0.0590163096786 -0.00184986344539 -0.0115515775979 
-0.0422483421862 -0.00151022372302 -0.00692295050249 
-0.0488654635847 -0.00138546829112 -0.0139755290002 
-0.035360109061 -0.00148708990309 -0.019821330905 
-0.0446680374444 -0.00101146800444 -0.0272442568094 
-0.0348809957504 -0.00106105359737 -0.0321955233812 
-0.0152246728539 -0.00150473730173 -0.0200412198901 
-0.0609580650926 -0.00144485814963 0.0191702041775 
-0.0734464377165 -0.001373106963 -0.00042891909834 
-0.0529330447316 -0.00183434272185 0.019303381443 
-0.0852826014161 0.0625779777765 -0.00568596366793 
-0.0835690721869 0.0490048080683 -0.00613984186202 
-0.0897073969245 0.0528900176287 0.0049196369946 
-0.0793521553278 0.0391482077539 -0.00551019702107 
-0.0831550657749 0.0426159016788 -0.000308395654429 
-0.0773780718446 0.0609147027135 -0.0142321605235 
-0.0738272964954 0.0497814230621 -0.0173948071897 
-0.0717998966575 0.0337412729859 -0.005001665093 
-0.0754981711507 0.0321926474571 0.00284472364001 
-0.0681552216411 0.0408150590956 -0.0172304157168 
-0.0681356713176 0.00794215686619 -0.00602587964386 
-0.062621936202 0.0321550704539 -0.010943422094 
-0.0652076676488 0.0693694725633 -0.0181031171232 
-0.0631466209888 0.0615927986801 -0.0201213993132 
-0.0663135573268 0.0279329586774 -0.00361555046402 
-0.0763384848833 0.0679274350405 -0.0127662215382 
-0.0737304389477 0.0798727273941 -0.00903927814215 
-0.0843665972352 0.0768818482757 0.000615613244008 
-0.0879389345646 0.0892346575856 -0.00343007640913 
-0.0816735997796 0.101725846529 -0.00485880626366 
-0.0741317644715 0.0953814387321 -0.0100481295958 
-0.0793848708272 0.122358389199 -0.0173698104918 
-0.0759315192699 0.120031788945 -0.020365588367 
-0.0782884508371 0.120131380856 -0.00229021604173 
-0.0775062963367 0.127200901508 -0.0119100706652 
-0.0807259753346 0.13117004931 -0.0333111770451 
-0.0723384171724 0.106575593352 -0.00856411922723 
-0.0787062868476 0.11385513097 -0.00482224579901 
-0.0771431550384 0.116589508951 -0.021952630952 
-0.0730814263225 0.112276174128 -0.0249183438718 
-0.0738590359688 0.123091012239 -0.0366446524858 
-0.0738801136613 0.115502044559 -0.0408803299069 
-0.0693601816893 0.12782278657 -0.00651893485337 
-0.0754041820765 0.12906076014 -0.0372574031353 
-0.0681366920471 0.109827406704 -0.0218581408262 
-0.0662491247058 0.106720402837 -0.00894726905972 
-0.0679628476501 0.113703258336 -0.0368868932128 
-0.0636928379536 0.122200198472 -0.0553187914193 
-0.0683494284749 0.125750645995 -0.0577189363539 
-0.063126206398 0.121008530259 -0.00594602385536 
-0.0720913857222 0.123218432069 0.00474523054436 
-0.0713377073407 0.129033833742 -0.0497722476721 
-0.0608443878591 0.0874474793673 -0.0103412624449 
-0.0566989220679 0.0797202438116 -0.0179614815861 
-0.0618016272783 0.115813925862 -0.0271439887583 
-0.0621238946915 0.124340504408 -0.0457699932158 
-0.0599706806242 0.123743124306 -0.0188536178321 
-0.0775464996696 0.136229559779 -0.0290362965316 
-0.0722054988146 0.13662558794 -0.0515023358166 
-0.0808713957667 0.141880735755 -0.0473618470132 
-0.0721236690879 0.141721054912 -0.0391945280135 
-0.0729280859232 0.143645122647 -0.05625044927 
-0.0717239826918 0.149009391665 -0.0524213984609 
-0.0720090344548 0.136657595634 -0.0244046486914 
-0.0646282956004 0.133885383606 -0.0263426881284 
-0.0607502572238 0.146261140704 -0.0610449835658 
-0.0646832510829 0.141728594899 -0.0484276227653 
-0.064871378243 0.13787381351 -0.0621375069022 
-0.0636710301042 0.136711612344 -0.0407851710916 
-0.0552465803921 0.047821868211 -0.0228971019387 
-0.0581841729581 0.0387789644301 -0.018764782697 
-0.058122806251 0.0232834853232 -3.23862004734e-05 
-0.0539582595229 0.0310295671225 -0.0116274058819 
-0.0563665628433 0.0588722750545 -0.0234292596579 
-0.049681134522 0.00771819707006 -0.0126631241292 
-0.0580533593893 0.0134844919667 -0.00530833285302 
-0.0526987425983 0.0179182961583 -0.00851085782051 
-0.045001257211 0.0360630825162 -0.0181176681072 
-0.0461334735155 0.0211547333747 -0.0123683316633 
-0.0480129010975 0.0407726503909 -0.0191640891135 
-0.0458394214511 0.00698596565053 -0.0217064898461 
-0.0428227521479 0.0147656453773 -0.0125050619245 
-0.0406012050807 0.0249944087118 -0.0131646664813 
-0.044589381665 0.0535606779158 -0.0236394032836 
-0.0525439158082 0.0652909427881 -0.0233551170677 
-0.0392768867314 0.0122133372352 -0.0264235660434 
-0.0366458557546 0.0407914482057 -0.0194671154022 
-0.0364559069276 0.0325424261391 -0.0162453688681 
-0.0409259088337 0.0660555511713 -0.0231221150607 
-0.0348122268915 0.0522159524262 -0.0258012786508 
-0.031042104587 0.00334488856606 -0.0168753899634 
-0.0366350151598 0.00312278000638 -0.00587038416415 
-0.0356246568263 -0.00175604084507 0.00644549494609 
-0.0329789035022 0.0181185249239 -0.0111987488344 
-0.0316629633307 0.0100265191868 -0.030809732154 
-0.0298055224121 0.0161760188639 -0.0239652581513 
-0.0307725667953 0.0247186068445 -0.0232026912272 
-0.0324152521789 0.0425712130964 -0.0336731411517 
-0.0292601361871 0.0606141388416 -0.0258157067001 
-0.0239649731666 0.00301045388915 -0.0014417321654 
-0.0288335755467 0.0319817811251 -0.0320076607168 
-0.0257899872959 0.0212622769177 -0.0303940381855 
-0.0292613096535 0.0498181506991 -0.0372121706605 
-0.0270226914436 0.0567746013403 -0.0363022200763 
-0.0175089109689 0.010490144603 -0.0293876435608 
-0.0234316643327 0.0366068705916 -0.0393664687872 
-0.0133063457906 0.000720786629245 -0.0270607247949 
-0.0201554559171 0.0256969854236 -0.0360003188252 
-0.0196268334985 0.0479433164001 -0.0408120490611 
-0.0154009507969 0.0660489201546 -0.0258639957756 
-0.0171598363668 0.062126070261 -0.0340400747955 
-0.00329364091158 0.00387122295797 -0.0135070281103 
-0.0006585016381 0.00355465873145 0.00096909084823 
-0.0139370355755 0.0194781348109 -0.0350243635476 
-0.0154979061335 0.0567951239645 -0.0388310551643 
-0.0132615389302 0.0273737683892 -0.0376354679465 
-0.0136966835707 0.0371592454612 -0.0398347899318 
-0.00562933506444 0.0437817573547 -0.0388783626258 
-0.0019232800696 0.0127557683736 -0.0312129259109 
-0.00305716600269 0.0506781041622 -0.0388751402497 
-0.00270153395832 0.0606079734862 -0.0354486741126 
-0.00416914513335 0.0652482062578 -0.0299977958202 
0.00241070264019 0.00143507460598 -0.0255290400237 
0.00405256217346 0.008565380238 -0.0257683843374 
-0.00179054227192 0.0348758399487 -0.036213517189 
-0.000924696621951 0.0286880470812 -0.0360989831388 
0.00654326239601 -0.0012940649176 -0.0166665595025 
0.00204954715446 0.0224465858191 -0.0330640822649 
-0.0580128915608 0.103981740773 -0.00713411718607 
-0.0609251223505 0.111110627651 -0.00691057601944 
-0.0553063750267 0.110951289535 -0.00262996205129 
-0.0645845457911 0.121972233057 0.0017403109232 
-0.0600362084806 0.126293629408 -0.0339082293212 
-0.0501278750598 0.0955856591463 -0.00506487535313 
-0.0572804883122 0.122054181993 -0.00231121270917 
-0.0483646243811 0.104291670024 0.00311383488588 
-0.0470298863947 0.11660348624 -0.00639516720548 
-0.0458546988666 0.072104409337 -0.0217910949141 
-0.0481661595404 0.0869050770998 -0.0147130265832 
-0.043340831995 0.0911524966359 -0.0116061614826 
-0.045626681298 0.124919489026 -0.0103721739724 
-0.0392400249839 0.0830993503332 -0.0165585782379 
-0.0422756485641 0.112995304167 -0.00339981075376 
-0.0377155691385 0.0939742028713 -0.00508923083544 
-0.0395460054278 0.121232822537 -0.0109719531611 
-0.033848349005 0.0727206617594 -0.022324277088 
-0.0349184237421 0.130707010627 -0.0166582986712 
-0.0288034118712 0.0901779010892 -0.00564569002017 
-0.0281833298504 0.119999423623 -0.00817897543311 
-0.0351540707052 0.116443648934 0.000683494959958 
-0.0298204701394 0.124547608197 -0.0141318365932 
-0.0240947678685 0.0848571136594 -0.0144469374791 
-0.0217944029719 0.125944599509 -0.000594359938987 
-0.0264829751104 0.0714057907462 -0.0243807341903 
-0.0199004840106 0.0797719955444 -0.0200232286006 
-0.0152988592163 0.0916993692517 -0.00674025714397 
-0.0153816575184 0.125226408243 -0.0125409541652 
-0.0134869562462 0.0839613676071 -0.0168281160295 
-0.0108451796696 0.132384464145 -0.0130934920162 
-0.00283075938933 0.0673582106829 -0.0247465595603 
-0.00660831807181 0.0768462195992 -0.0234818737954 
-0.00192033720668 0.0789258033037 -0.0212629754096 
-0.0034822744783 0.0870980024338 -0.0145143335685 
-0.00726671423763 0.0942638292909 -0.0074705760926 
0.00773591222242 0.0708934292197 -0.0222389604896 
0.00553651014343 0.0860722586513 -0.0169867333025 
0.00828219857067 0.0942411422729 -0.00679817749187 
0.0039082961157 0.0977837666869 -0.000288295908831 
-0.060671068728 0.133980572224 -0.0506767593324 
-0.0519194416702 0.131084427238 -0.00370104215108 
-0.0461443401873 0.131931275129 -0.00944726541638 
-0.0384695716202 0.142662465572 -0.00948880240321 
-0.0465589016676 0.13635802269 0.000817072112113 
-0.0371257811785 0.137610316277 -0.01456239447 
-0.0288061611354 0.13534347713 -0.00708670541644 
-0.0264756511897 0.147388651967 -0.00539776636288 
-0.0371937304735 0.128848522902 0.00105696427636 
-0.0268519558012 0.134496927261 -0.020074352622 
-0.0255587454885 0.147205010056 -0.0192734487355 
-0.0196461677551 0.155298396945 -0.0169899761677 
-0.0229256097227 0.14330136776 -0.0226365383714 
-0.0177115350962 0.147413119674 -0.0159453675151 
-0.0160180777311 0.129607781768 -0.018856042996 
-0.0171459633857 0.137999013066 -0.0146547695622 
-0.0199713483453 0.136095508933 -0.022415695712 
-0.0103113017976 0.139835104346 -0.0303335841745 
-0.0133092533797 0.145542740822 -0.0203643646091 
-0.0174022447318 0.149091571569 -0.0275116097182 
-0.00864073541015 0.14736032486 -0.0274904984981 
-0.0912155359983 0.0628825202584 0.0148767372593 
-0.0908014550805 0.0573005191982 0.0225948486477 
-0.0898090451956 0.0646953880787 0.00618626456708 
-0.0876788198948 0.0453688688576 0.0159580595791 
[...]
POINT_DATA 502
VECTORS displacement double
0 0 0
0 0 0
0 0 0
0 0 0
0 0 0
0 0 0
0 0 0
0 0 0
0 0 0
0 0 0
0 0 0
6.92158925312e-05 3.82826563911e-06 -3.6771358132e-05
-3.89136741528e-05 -2.53392774162e-05 -3.55986255712e-05
-4.43738657894e-06 3.22522173027e-05 -4.35662834032e-05
-0.000104494973482 -6.5694726014e-05 -3.33390925175e-05
-8.10805850873e-05 -3.32629471304e-05 -3.77209906626e-05
4.63310395479e-05 -6.62470654706e-05 -3.7359684167e-05
-5.09057132931e-05 -0.000104775397084 -3.88601998715e-05
-0.000130439277349 -0.000122044434255 -3.33141555315e-05
-0.000134032154283 -9.66249708713e-05 -3.58883703107e-05
-0.000111943752356 -0.000153251226796 -3.96883568214e-05
-5.47209862806e-05 -2.05205194831e-05 -2.51785373766e-05
-0.000143288906052 -0.000187170905751 -3.6697924927e-05
0.000111823701994 -0.000164329037357 -4.49987898501e-05
3.50166912603e-05 -0.000185458289569 -5.40248021571e-05
-0.000143251685086 -0.000156970266066 -2.90704179413e-05
0.000111625781179 -7.03411440882e-05 -3.61105155073e-05
0.000241431045565 -8.70409319654e-05 -3.3177365768e-05
0.000213313859807 1.56376396053e-05 -3.98612054009e-05
0.000358536484717 6.65111637131e-05 -4.30934724941e-05
0.000503239650652 -1.09259858267e-06 -3.78516532638e-05
0.000431931438238 -8.33485051517e-05 -3.27392125111e-05
0.000753994274493 -2.76664205451e-05 -3.54209307639e-05
0.000731178437686 -6.5643443048e-05 -3.20118652627e-05
0.000713326777571 -4.17184865645e-05 -3.36632231642e-05
0.000802808646776 -4.96003258148e-05 -3.28221991501e-05
0.000871261084163 -1.17802994724e-05 -3.70665880088e-05
0.000564771499953 -0.000107282334932 -2.90616897602e-05
0.000644812144099 -3.55764753621e-05 -3.50689307339e-05
0.000693525034886 -5.1916073677e-05 -3.38203835547e-05
0.000647814387339 -9.77311036783e-05 -3.02418833255e-05
0.000783465536015 -8.87366188329e-05 -2.99587882591e-05
0.000702124036385 -8.79620115013e-05 -3.07568472974e-05
0.000804236307531 -0.000144420687766 -2.46914194123e-05
0.000851732052131 -7.13447401022e-05 -3.1265842407e-05
0.000616096592921 -0.000154110533109 -2.554891132e-05
0.000566630396551 -0.000176677081411 -2.36159311249e-05
0.000677563300622 -0.000155716678597 -2.46209814715e-05
0.000793596903994 -0.000202466318788 -1.88334307922e-05
0.000836130520413 -0.000149297498907 -2.35024643326e-05
0.000726498132255 -0.00021615163755 -1.93243231101e-05
0.000741564943851 -0.000115691009996 -2.74709263699e-05
0.000865062077823 -0.000116066713029 -2.65617315446e-05
0.000332183971976 -0.000221200844556 -2.5419188884e-05
0.000223419135738 -0.000242660801364 -3.78518551082e-05
0.000691139690818 -0.000227512151939 -1.78724236293e-05
0.000808492623442 -0.000222024176453 -1.6554541139e-05
0.000772559181515 -0.000250656505664 -1.49493996231e-05
0.000923543455753 -4.91214099164e-05 -3.3316784287e-05
0.000953039023477 -0.000105786950753 -2.68332199375e-05
0.00100790870992 -8.39886361747e-06 -3.6006818199e-05
0.000997166136031 -0.00010958744237 -2.63074352377e-05
0.00103768735446 -9.76145784617e-05 -2.70543336834e-05
0.00109456318915 -0.00011233326149 -2.51005238638e-05
0.000923114644165 -0.000112225585575 -2.67180787548e-05
0.000894730778609 -0.000196756809249 -1.87959847229e-05
0.00107291981646 -0.000236330278986 -1.30989166257e-05
0.00100801328803 -0.000193502731935 -1.77138036799e-05
0.000978749398658 -0.000188821593099 -1.84795614173e-05
0.000942781040268 -0.000206155714837 -1.71065322575e-05
-8.29314864037e-05 -0.000252149659073 -7.2867294833e-05
-0.000128807118979 -0.000226367822345 -5.65318385704e-05
-0.000126293665517 -0.000151589071414 -3.4365607383e-05
-0.000135104248576 -0.000219227328628 -5.46032046857e-05
1.54390465192e-06 -0.000242511635314 -7.00039557722e-05
-5.28984184216e-05 -4.48177188132e-05 -4.38007067051e-05
-7.99725844494e-05 -6.2191554689e-05 -3.37943821564e-05
-0.000103683733789 -0.0001251608733 -5.04390641822e-05
-0.000125482108447 -0.000293832306873 -9.18936644028e-05
-0.000111601512115 -0.000177969293018 -6.86691186054e-05
-0.000111936969947 -0.000290166400785 -8.93488012807e-05
-5.36745902579e-05 -3.14362536083e-05 -3.85718589363e-05
-6.68553685165e-05 -6.43709152711e-05 -4.47825791748e-05
-0.000104530236818 -0.000240237180139 -8.46769735758e-05
-4.24242031734e-05 -0.000348125263851 -0.000110972038952
5.64912473219e-05 -0.000276905233189 -7.22451962075e-05
-6.05919228467e-05 -1.27844079184e-05 -5.759528871e-05
-6.82906676687e-05 -0.000366940754156 -0.000154248520293
-9.21685875524e-05 -0.000296423454517 -0.000122940933416
5.69106995936e-05 -0.00039957288569 -0.00010530329251
-8.77132134164e-06 -0.000422710181573 -0.000175544007843
0 0 0
0 0 0
0 0 0
-5.75506314967e-05 -0.000115266385048 -6.19607302203e-05
-4.71843654399e-05 -2.8502349393e-05 -7.71059326311e-05
-5.52590495822e-05 -0.000127065085303 -8.5638188655e-05
-7.67550276116e-05 -0.000295359441972 -0.000143478029145
-1.49788897905e-05 -0.000401874834221 -0.000207668186683
4.86452517749e-05 -0.000494837820726 -0.000170440469709
0 0 0
-4.95130552477e-05 -0.00038094497511 -0.000192617798451
-7.20673320826e-05 -0.000329886525832 -0.000154856940813
2.07026179464e-05 -0.000418646483207 -0.000204708391318
7.21594633461e-05 -0.000432524241153 -0.00019338672356
-5.53844125072e-05 -0.000197882728736 -0.000127771830757
-4.08997652107e-05 -0.000433859643944 -0.000215448948073
0 0 0
-5.83285375408e-05 -0.000398423683663 -0.000196533160776
1.13380290284e-05 -0.000470918613915 -0.000225859465825
0.000128913567143 -0.000668540299113 -0.000199999365762
0.000126443053874 -0.000542321267838 -0.000194132957424
0 0 0
0 0 0
-5.12831825747e-05 -0.000373730335066 -0.0001916770606
8.23677411403e-05 -0.000522250407793 -0.000219195729714
-4.61531724756e-05 -0.000434617220893 -0.000226490758179
-2.15880891943e-05 -0.000479455319207 -0.000243487620697
3.3574127078e-05 -0.000560161334571 -0.000272359897256
-2.4834186022e-05 -0.000365943876511 -0.000162860818891
8.22574432238e-05 -0.000604730064283 -0.000270989129585
0.000162111253037 -0.000656150625961 -0.000237289532043
0.000202469849253 -0.00070563906033 -0.00019854113416
0 0 0
-3.59325434253e-06 -0.000232350799096 -0.000126137947588
2.8150261325e-05 -0.000536017556755 -0.000270151353274
1.12530343547e-05 -0.000499494076259 -0.000260632213906
0 0 0
1.42592559207e-05 -0.000457160388748 -0.00024265325356
0.00053282125805 -0.000271202264479 -1.71877030428e-05
0.000614478635096 -0.000239079768761 -1.84937164024e-05
0.000609144818884 -0.00030512637009 -1.35246354515e-05
0.000730377131895 -0.000201622183079 -2.07304381349e-05
0.000817704533454 -0.000247918362642 -1.38251154195e-05
0.000436303384943 -0.0003540200292 -8.14503584916e-06
0.000735983196696 -0.0002848549285 -1.34741862806e-05
0.000523592220666 -0.000387350408013 -7.67592243934e-06
0.000678397755688 -0.000403412336099 -4.53801765235e-06
0.000126251610701 -0.000348970381856 -7.50083808614e-05
0.000320547725852 -0.000346227830599 -2.39163060844e-05
0.00038327005433 -0.000423789428676 -1.03047431699e-05
0.00077619848993 -0.000418799779517 -1.82244482465e-06
0.000262809465231 -0.000444955260178 -4.78038164714e-05
0.000635128145743 -0.000460586998526 -9.24057769958e-07
0.000432280411788 -0.000546104820771 -4.43631872516e-07
0.000736853126381 -0.000492351544756 3.70822167049e-06
0.000125403445864 -0.000488546518323 -0.000113004604789
0.000846694180163 -0.000544666768724 7.63979972109e-06
0.00038090106837 -0.000723786350113 -2.09345458246e-05
0.000723961026638 -0.000641031763785 1.73308393364e-05
0.00067847063081 -0.00055859673294 9.07776568767e-06
0.000777125301685 -0.00061073208533 1.43156201593e-05
0.000296123291288 -0.000729517773858 -8.14243450551e-05
0.000781413756351 -0.000722832260543 1.76292064918e-05
0.000120306187717 -0.000588674037699 -0.000151627134612
0.000224591776649 -0.000756139141089 -0.000138997302008
0.000416065296578 -0.00120327284686 -5.31660631434e-05
0.000778263161821 -0.00079102672448 2.4716833942e-05
0.000300700573326 -0.000984131852006 -0.000151934183719
0.000858514935501 -0.000833622103994 2.29185838774e-05
0.000212305018352 -0.000876605790186 -0.000227601750289
0.000256510667837 -0.000961994110314 -0.000236169228488
0.000317215360596 -0.00108831085652 -0.000240043095377
0.000406217316951 -0.00128596444904 -0.000189677286333
0.0005 -0.0023 0
0.000323345238857 -0.00110165052617 -0.000270413332359
0.000452215310357 -0.00132164784316 -0.000188858682012
0.0005 -0.0023 0
0.0005 -0.0023 0
0.000922856924053 -0.000238667013037 -1.38414162243e-05
0.000840468604201 -0.000347136592785 -7.44861946823e-06
0.000854486174334 -0.000412662167032 -2.35956707851e-06
0.000976381092603 -0.000501357593177 1.91336674462e-06
0.000897334845029 -0.000410552629142 -3.69901198932e-06
0.000922483454546 -0.000516913528149 4.09314374411e-06
0.000891208125975 -0.000628065884235 1.01488621706e-05
0.00102850046023 -0.000648200305696 9.4623539433e-06
0.000814227471 -0.000529236452536 6.28181413815e-06
0.000891186231095 -0.000638197258221 1.28866021129e-05
0.0010345202923 -0.000649922631214 1.05245371547e-05
0.00112480149164 -0.000719822081614 1.39391675829e-05
0.00099277305514 -0.00068131928146 1.35870918086e-05
0.00103382777039 -0.000747763779255 1.69959362987e-05
0.000833268322199 -0.000773075133985 2.35554503858e-05
0.000925819623319 -0.000757602372048 1.84669338059e-05
0.000910585171296 -0.000719286233273 1.80472827073e-05
0.000957065718246 -0.000828946714364 2.43876170116e-05
0.00101396668549 -0.00079703632665 1.98829288213e-05
0.00106140261672 -0.000743478701777 1.62907590485e-05
0.00104062458947 -0.000846797415466 2.37909441957e-05
7.39556663274e-05 5.61280765508e-05 -5.0804672479e-05
1.86327122555e-05 4.6696170941e-05 -5.58178888549e-05
9.3860154017e-05 4.49945989163e-05 -4.3542280019e-05
-6.54361348113e-05 5.45876236289e-06 -5.13071538932e-05
-2.96158757628e-05 1.59380529772e-05 -4.49223111166e-05
-9.06546763676e-05 -2.66165450562e-05 -4.03180892845e-05
-2.78274999396e-05 1.03906174844e-05 -5.56155931158e-05
-7.68900923695e-05 -2.66812548712e-05 -5.60530210475e-05
4.58018073103e-05 5.47583240237e-07 -5.31471319405e-05
-0.000121366062897 -5.31098908945e-05 -4.79904668296e-05
-0.000131801679831 -8.20872126502e-05 -4.11673869986e-05
-0.000141114714263 -9.40945453964e-05 -4.87387490345e-05
-0.000142285487749 -9.93540442669e-05 -5.07781683423e-05
-0.000140750649561 -0.000128135327951 -4.44387036059e-05
-8.46187597433e-05 -9.49213106526e-05 -4.5377772619e-05
-1.47077635595e-05 -0.00010678691402 -3.67478692915e-05
7.44633815205e-05 -8.21202530774e-05 -3.91742350915e-05
-0.000156432352947 -0.000138301652801 -4.49440099502e-05
-5.77447592498e-05 -1.01139124203e-05 -4.28718034352e-06
0 0 0
-0.00014761544923 -0.000133273376222 -3.6595055747e-05
-0.000160097409448 -0.000160127586486 -4.18710743882e-05
-0.00016902701534 -0.000188160556048 -3.69471627147e-05
-5.51993999994e-05 -0.000188707482353 -1.23043032277e-05
0 0 0
-4.83853993376e-05 -3.42826740003e-05 1.91935284822e-05
0 0 0
-7.36949995827e-05 -4.17354371153e-05 -9.45710270909e-06
-6.41348801859e-05 -1.37715891522e-05 1.74330207573e-05
-0.00010920071483 -0.000157148693453 -2.79526956874e-05
-0.000115497295872 -0.000182487038827 -2.001072087e-05
0.000338206799389 0.000135974019499 -5.098873849e-05
0.000265506783606 0.000115025571036 -4.8959298399e-05
0.00025514272091 0.00013864591604 -5.32974690122e-05
0.000297522296934 0.000138701498182 -5.54042129332e-05
0.000319907829052 0.000132601797417 -5.47112101545e-05
0.000226073763844 0.000127720815561 -5.38315698028e-05
0.000364276789184 0.000153894698332 -5.5193114707e-05
0.000444872954117 0.000121277427929 -4.92278434684e-05
0.000412524878309 0.000119389961009 -5.36614264905e-05
0.000487317720931 0.000114823492692 -5.07129111453e-05
0.000112301163462 4.73328191809e-05 -5.20717492307e-05
0.000185725309941 5.29899984654e-05 -4.62106089089e-05
0.00023385317011 9.80326462308e-05 -5.04878610783e-05
0.000174373801197 7.06940316087e-05 -4.68326695827e-05
0.000220263021968 6.25202287334e-05 -4.7093199295e-05
0.000390324113134 0.000106120402888 -5.25868749699e-05
0.000549998395797 7.71425121277e-05 -4.59829303235e-05
0.000493136555138 8.6427765826e-05 -4.55069942832e-05
0.000539172411525 0.000101964506997 -5.06561527575e-05
0.000507135639788 9.20463854216e-05 -5.07538102864e-05
0.000560032331341 0.000125715404582 -5.15029156949e-05
0.000598616455177 5.25427164643e-05 -4.61836296344e-05
0.000654440801723 0.000121322423374 -5.05482103293e-05
0.000649270885123 8.13314681916e-05 -4.62559621909e-05
0.000729464123598 -1.94683419372e-05 -3.70090031657e-05
0.000172742215445 1.95903403898e-07 -4.41827686319e-05
0.00015824432529 -4.55809512843e-05 -3.65613519476e-05
0.000404468080887 3.46092189641e-05 -4.5271389998e-05
0.000551774720315 -3.28582774545e-05 -3.85915483122e-05
0.000692865742283 4.75623005471e-05 -4.40940655488e-05
0.000360825161652 -1.77299098731e-05 -3.96348910981e-05
0.000447802148108 -5.35339075693e-05 -3.62459878066e-05
0.000685934446291 -5.67643286181e-05 -3.58066378825e-05
0.000136699438653 -8.5844648603e-05 -3.34721510291e-05
0.000241332107034 -8.70765819874e-05 -3.23852695945e-05
0.000341674985631 -0.000132200183837 -2.75501535531e-05
0.000538064739207 -0.000153709800533 -2.67270169008e-05
0.000734057628507 -0.000166931474607 -2.55819299569e-05
0.000166450192868 -0.000182908339186 -2.31528161868e-05
8.33206318597e-05 -0.000216635516492 -7.47816815549e-06
0.000189853704599 -0.000156908522058 -2.59651857624e-05
0.000255366164777 -0.000196126480983 -2.0890476884e-05
0.000403054720408 -0.000170221689436 -2.37693338132e-05
0.000681011581421 -0.000227859577961 -2.0898080818e-05
0.000227743116746 -0.000238235911705 -1.78420065674e-05
0.000322121102892 -0.000247437666261 -1.5190581935e-05
0.000454474086558 -0.000229278046831 -1.93665524033e-05
0.000546132646271 -0.000218958784337 -2.1033812398e-05
0.000740975530472 -0.000264706391731 -1.57887807864e-05
-5.40788688325e-05 -1.02895966201e-05 5.92088638887e-06
0 0 0
-5.55912235365e-05 -1.01348438732e-05 2.98840835898e-05
-0.000162524125076 -0.000225923655206 -1.33487262533e-05
-4.99820797943e-05 -3.43132778787e-05 4.61826254811e-05
0 0 0
-7.91205143112e-05 -6.35260126792e-05 1.03887688406e-05
-0.000129466517642 -0.000185898514259 -1.6352301816e-05
-0.000107629396262 -0.00029186631261 3.21637631224e-05
-3.25919603917e-05 -0.000300527484697 3.09116931055e-05
0 0 0
-7.58558180812e-05 -8.61363883596e-05 -2.29710695644e-06
-8.80262147044e-05 -8.17040086826e-05 3.22791286355e-05
-0.000151507070474 -0.000221432680694 7.70914728653e-06
-0.000152758343921 -0.000289275389154 3.50728684958e-05
0 0 0
-5.47622353857e-05 -3.85774176026e-05 4.83863633042e-05
-0.000149818829552 -0.000237727122104 4.30643442313e-05
-6.87151336215e-05 -6.19293936173e-05 5.49829640711e-05
-8.27141174913e-05 -0.000365851591782 6.9676170365e-05
-8.95110942534e-05 -0.000122991970915 5.32875450609e-05
-0.000142793586169 -0.000249462390921 7.33328031177e-05
-0.000115549263952 -0.000370667686928 8.49349507161e-05
3.97220094328e-05 -0.00043646108941 7.01256049428e-05
0 0 0
0 0 0
-6.20653629437e-05 -5.9854569108e-05 6.50958147303e-05
-5.03803639282e-07 -0.000505185922142 0.000114183269881
-6.39333692716e-05 -0.000447314430445 0.0001357287521
0 0 0
0 0 0
0 0 0
0 0 0
0 0 0
-4.76438380177e-05 -2.31985530687e-05 8.38798528579e-05
-4.08776158319e-05 -2.30863012182e-05 5.83719136473e-05
-6.84941036043e-05 -0.00015603838543 6.0862024137e-05
-7.58567842909e-05 -0.000298540718311 9.60056005197e-05
4.15652846259e-05 -0.000531922457838 0.000205602890308
3.41934816643e-05 -0.00055977477368 0.000168139773285
-3.62679321881e-06 -0.000513808719281 0.000184335807897
-5.24586812664e-05 -0.00019590252873 8.54995665111e-05
-2.91961573547e-05 -0.000440124350401 0.000179301835686
1.41884470877e-05 -0.000559005183125 0.000209820734496
0.000121936239768 -0.000603635489855 0.000185718249752
0.000142681628842 -0.000811746505681 0.000179299950152
8.13974677089e-05 -0.00067709253435 0.000151073924499
0 0 0
-2.90891032242e-05 -0.00043904182038 0.000154551548693
0.000108255756832 -0.000629309756197 0.00021092810402
0 0 0
-7.9872093274e-06 -0.000480999603004 0.000202556082185
6.8786771746e-06 -0.000528790619138 0.000212987980551
0 0 0
0 0 0
-7.62080108323e-06 -0.000208162086162 0.000117594198371
4.54984031028e-05 -0.000615108376242 0.000249928342301
0.000212257480049 -0.000741886992729 0.000182530999099
3.83526391217e-05 -0.0005614667588 0.000235529211723
6.55967985344e-05 -0.000623959895302 0.000252615167498
0 0 0
0 0 0
4.61139317148e-06 -0.000489643988312 0.000164567140023
0.00017702394626 -0.000749164332839 0.000241465976242
0.000609064063809 -0.000277117729392 -1.60826002681e-05
0.000511017316214 -0.000336572426897 -1.16591423767e-05
0.000218934473482 -0.000318074203779 -4.71865296308e-06
0.000433070739795 -0.000304085145521 -1.31474115646e-05
0.000630692918995 -0.000339122716847 -1.08491141145e-05
0.000700722740198 -0.00030770778651 -1.40651993425e-05
0.000142752197353 -0.000332742370095 1.18119996955e-05
0.000352067845389 -0.000358553035248 -6.10324595016e-06
0.000634987716366 -0.000375361663736 -7.20438688518e-06
0.000716785551845 -0.000340108128425 -1.00021458744e-05
0.000271361471612 -0.000391349359134 -4.08939152751e-07
0.000393311718243 -0.000407119614935 -3.53261750427e-06
0.000529812455073 -0.000402357074155 -7.74219423093e-06
0.000579688603507 -0.000391618817618 -6.76506475797e-06
0.000824623976637 -0.000437941915142 -2.23030544751e-06
0.000111198916693 -0.000394486828873 3.71927468354e-05
0.000213160836752 -0.000470559488933 2.33673460684e-05
0.000423460387244 -0.000480710431002 -7.63922431516e-06
0.000453675346336 -0.000456810178994 -4.86660382724e-06
0.000748499249444 -0.00052453410344 4.26449992241e-06
0.000363826754869 -0.000551761869052 -3.95344089241e-06
0.000456367338736 -0.000622634499151 -3.12810518287e-07
0.000291326568916 -0.000638646764854 2.80745516853e-05
0.000150285875631 -0.000586838599245 7.86315219337e-05
0.000414675975919 -0.000823296441813 1.06825529556e-06
0.000141922126771 -0.000743273651313 0.0001316633618
0.000321481718985 -0.000760641478701 5.60759903503e-05
0.000445386775016 -0.000689584078527 -3.42494242129e-06
0.000321884373608 -0.00103607945346 0.00014325630475
0.000474047097248 -0.000830031255083 9.47525980888e-06
0.0005 -0.0023 0
0.0005 -0.0023 0
0.000229984696514 -0.00105888906404 0.000244315018762
0.000418448160638 -0.00125685486498 0.00017996663001
0.0005 -0.0023 0
0.0005 -0.0023 0
0.0005 -0.0023 0
0.000266407835614 -0.00104657967324 0.000231413864558
0.000352935369116 -0.00127326346921 0.000250376122756
0.0005 -0.0023 0
0 0 0
0.000163123788255 -0.000719532877072 -0.000287706396041
0.000225999402822 -0.000775495260026 -0.00025501765154
0 0 0
0 0 0
3.80523366342e-05 -0.000470734699551 -0.000236139522249
0.000123215181115 -0.000648758167038 -0.000284295829303
0.000107419107841 -0.000659062250128 -0.000297968474854
0.00031532769321 -0.00096987522767 -0.000253040504799
0 0 0
5.61866563326e-05 -0.000438357764909 -0.000202692924066
0.000231577181275 -0.000825512184504 -0.000298020712466
0.000160956028921 -0.000653136392325 -0.000266181793001
0.000233095709301 -0.00079241709545 -0.000279115161832
0.000325594359844 -0.000955741482167 -0.000276308895667
0.000103338841151 -0.000506910242191 -0.000173617376348
0.00012614033295 -0.000586091791788 -0.000240354526448
0.000113561294983 -0.000434945021305 -0.000122208351325
0 0 0
0.000140888991227 -0.000591872989544 -0.000185987366612
0.0002121894409 -0.00073931630897 -0.000249564197241
0.000318125350511 -0.000925116885462 -0.000279135449606
0 0 0
0.00020096266894 -0.000627285218449 -0.00017270633561
0.000315217093891 -0.000915750040657 -0.000252496810799
0.000433399646343 -0.00110487235898 -0.000252358282482
0.000311002011728 -0.000709165509824 -0.000142432686841
0.000280253479912 -0.000830639319884 -0.00022490431384
0.000418747429866 -0.00105851163165 -0.000231967116715
0.000343751629103 -0.000930087535919 -0.00021980634509
0.000163398974796 -0.0007243601202 -3.06314831829e-05
0.000313717276336 -0.00073172079702 -9.23411607004e-05