# vtk DataFile Version 2.0
VTK exported mesh
ASCII
DATASET UNSTRUCTURED_GRID
POINTS 507 double
0.157351076603 -0.0436767078936 -0.12912504375 
-0.64572763443 -0.0422893241048 0.253706246614 
-0.649265348911 -0.041737370193 -0.632155299187 
0.0344112180173 -0.0434040427208 -0.629056811333 
0.636263668537 -0.0421565957367 0.640655219555 
-0.642485022545 -0.0348651707172 0.65854036808 
-0.674681782722 0.2315171808 -0.0756069272757 
-0.650629222393 0.24841722846 -0.655623435974 
-0.318289637566 0.247116476297 -0.580037415028 
-0.648360431194 0.325311660767 -0.074681378901 
-0.569091141224 0.36873626709 -0.283932060003 
-0.60553252697 0.370546102524 0.196805402637 
-0.5333507061 0.0339956879616 -0.676356613636 
-0.459726274014 0.324920505285 -0.465803951025 
-0.467093586922 0.426601648331 -0.0888237059116 
0.0645136460662 0.1724062711 -0.67661523819 
-0.417871713638 0.418469130993 0.225602656603 
-0.545201718807 0.546954274178 -0.0618188679218 
-0.472913712263 0.665693461895 0.083154939115 
-0.444399386644 0.680824398994 -0.171412959695 
-0.476333081722 0.760550558567 -0.000589228759054 
-0.417343527079 2.23569560051 -0.0588013753295 
-0.420055598021 0.754788339138 -0.0545619428158 
0.0688401013613 0.0316962152719 -0.67627364397 
-0.215691074729 0.372183680534 -0.597596228123 
-0.276328921318 0.445583611727 -0.361906349659 
-0.354613572359 0.535450518131 -0.430932343006 
-0.428499013186 0.796815633774 -0.195608749986 
-0.343928396702 0.767833888531 -0.207095816731 
-0.33525505662 0.748487591743 -0.237810194492 
-0.39784553647 0.763453483582 -0.0849096029997 
-0.403500765562 0.789070129395 -0.0974912419915 
-0.409169435501 1.86041915417 -0.0621603578329 
-0.374551266432 1.88036203384 -0.210350245237 
-0.328064829111 0.630389213562 -0.347955316305 
-0.344948023558 0.769238710403 -0.322323590517 
-0.20908908546 0.716230511665 -0.429426640272 
-0.258709102869 1.82436096668 -0.333063900471 
-0.337296098471 1.4244133234 -0.245854020119 
-0.190197318792 0.743684411049 -0.297926485538 
-0.338332414627 2.23312139511 -0.328269928694 
-0.336385190487 2.01108455658 -0.232352524996 
-0.332108557224 1.86201822758 -0.232772916555 
-0.104154624045 0.663311302662 -0.464184463024 
-0.245019346476 1.46546363831 -0.32784485817 
-0.216610863805 0.765009701252 -0.349289447069 
-0.13624317944 0.782726168633 -0.435277819633 
-0.0830908492208 0.749456763268 -0.393549829721 
-0.217873468995 1.62854969501 -0.364683300257 
-0.18973493576 1.79246616364 -0.43491512537 
0.0250637196004 0.432679355145 -0.461465418339 
0.0127124488354 0.542677164078 -0.541751742363 
-0.0679763555527 0.758589506149 -0.401239365339 
-0.112757079303 2.02876758575 -0.408675849438 
0.178102120757 0.253156393766 -0.610300302505 
0.0769456252456 0.31839337945 -0.648166596889 
-0.0266537666321 0.753537297249 -0.474576532841 
-0.0815098062158 1.26418018341 -0.39560598135 
-0.0624861977994 1.6259996891 -0.417351365089 
-0.454224079847 2.05782175064 -0.0451837703586 
-0.458809316158 2.51451706886 0.0412355512381 
-0.440135926008 2.01748085022 -0.175766199827 
-0.404585599899 2.33382821083 -0.0989938676357 
-0.39907297492 2.6535422802 -0.0916414633393 
-0.337973862886 2.9664170742 -0.248385712504 
-0.214051499963 2.57511544228 -0.357243806124 
-0.0873542428017 2.82915210724 -0.395347595215 
0.00986034423113 2.04115056992 -0.471511185169 
-0.0611331760883 2.72276830673 -0.412032753229 
-0.478601962328 3.70588850975 -0.00643341150135 
-0.362536668777 3.71986985207 -0.208129480481 
-0.443688720465 3.73950457573 -0.169606402516 
-0.410410404205 3.70674705505 -0.0593141168356 
-0.402932524681 3.732619524 -0.0984908118844 
-0.260578662157 3.73438596725 -0.332311719656 
-0.33197543025 3.11635065079 -0.245309576392 
-0.34984600544 3.68414640427 -0.318801671267 
-0.242175966501 3.03823637962 -0.329457074404 
-0.21706700325 2.93485474586 -0.370177358389 
-0.16338711977 3.70976424217 -0.443623036146 
-0.209615826607 3.72602081299 -0.368390977383 
-0.111692972481 3.69588732719 -0.399813145399 
-0.0643225684762 3.08068752289 -0.413976281881 
-0.0260714776814 3.71161270142 -0.473214566708 
-0.077001683414 3.74688315392 -0.392500311136 
-0.448634922504 3.8145942688 -0.163712069392 
-0.474003970623 3.76982188225 0.013037469238 
-0.533246457577 3.8936047554 0.121788278222 
-0.497398853302 3.8973531723 -0.22860071063 
-0.466478288174 4.01094436646 0.0225845593959 
-0.412893980742 4.01947498322 -0.224143773317 
-0.587408781052 4.0926361084 -0.14399176836 
-0.427776366472 4.18781471252 -0.385834395885 
-0.372383445501 4.03720092773 -0.389669388533 
-0.528150498867 4.22062158585 0.0334501899779 
-0.513298213482 4.31920528412 -0.141194373369 
-0.531399607658 4.29558849335 0.0584150329232 
-0.560001969337 4.49976825714 -0.0939010605216 
-0.427242875099 4.35944604874 -0.423828452826 
-0.336818695068 3.7387406826 -0.22598849237 
-0.303822904825 3.79319429398 -0.367357462645 
-0.257208347321 4.1222243309 -0.541951358318 
-0.255961596966 3.91165184975 -0.463394522667 
-0.210240840912 4.38425683975 -0.530654013157 
-0.137256503105 4.24983930588 -0.51741027832 
-0.09741358459 4.01548671722 -0.456177383661 
-0.086660258472 3.78654170036 -0.467866688967 
-0.0553946457803 3.89653515816 -0.537778437138 
0.138623923063 4.12141609192 -0.586468338966 
0.0143868159503 4.40802574158 -0.533191740513 
0.148975595832 3.80059790611 -0.451196968555 
-0.71136534214 5.29510593414 -0.425147682428 
-0.801304996014 5.22005033493 -0.6005448699 
-0.672302663326 5.14906167984 -0.0923963338137 
-0.730631351471 4.93104505539 -0.505166292191 
-0.68012970686 4.71374225616 -0.50383579731 
-0.564633905888 4.73815584183 -0.329331219196 
-0.541888237 4.88769769669 -0.728809535503 
-0.580614924431 5.04972648621 -0.703550577164 
-0.698008596897 4.99479293823 -0.54710316658 
-0.608126521111 5.11253595352 -0.180650681257 
-0.595190882683 5.27265405655 -0.797710478306 
-0.662553966045 5.29584121704 -0.274212062359 
-0.635776877403 5.29577350616 0.176628813148 
-0.635423243046 4.99827432632 -0.339260995388 
-0.604732513428 5.02565288544 -0.0862679630518 
-0.542693257332 4.93041658401 -0.18466168642 
-0.586563527584 4.84364938736 0.0235992595553 
-0.60897397995 5.06830358505 0.12694452703 
-0.569018602371 4.51870441437 0.113595448434 
-0.577771306038 4.64098453522 -0.147392809391 
-0.494309782982 4.63527107239 -0.222662031651 
-0.330440759659 4.75461149216 -0.585252404213 
-0.488117277622 4.68183994293 -0.536835074425 
-0.357042402029 5.0113492012 -0.637768983841 
-0.306446403265 5.29546785355 -0.667811691761 
-0.452324718237 4.61712646484 -0.34462749958 
-0.464477062225 4.72633171082 -0.354693263769 
-0.423419624567 4.79406929016 -0.334385246038 
-0.393494188786 4.75595569611 -0.330633640289 
-0.448900848627 4.72368764877 -0.37384685874 
-0.226391166449 5.10133266449 -0.610759496689 
-0.348045170307 4.57158994675 -0.447826653719 
-0.173687532544 4.62880277634 -0.565252363682 
-0.284782201052 5.15760183334 -0.69326120615 
0.153189301491 5.29603052139 -0.282727628946 
-0.115353345871 5.02299880981 -0.599903643131 
-0.279200702906 5.02797651291 -0.538435876369 
-0.0826932415366 4.53706121445 -0.535352349281 
0.043625049293 5.29507827759 -0.641708731651 
-0.0877322182059 4.73850059509 -0.542551040649 
-0.00688731297851 5.12653017044 -0.673712253571 
0.00103352288716 4.94081830978 -0.594962120056 
0.120512217283 4.56410884857 -0.533798694611 
-0.664066672325 0.242688506842 0.651080489159 
-0.541965305805 0.251088470221 0.33958029747 
-0.0322514884174 0.174387350678 0.677032828331 
-0.484918832779 0.357130944729 0.423177331686 
-0.291282176971 0.25017657876 0.57299798727 
-0.450130581856 0.558212935925 0.330927997828 
-0.0116227772087 0.245661258698 0.64077013731 
-0.202010631561 0.35664755106 0.615211009979 
-0.205075293779 0.441180557013 0.408016443253 
-0.354692578316 0.700005233288 0.324382007122 
-0.396102935076 0.744429945946 0.0953542143106 
-0.447476536036 0.8132340312 0.151479646564 
-0.361479818821 0.775721609592 0.207990586758 
-0.406820714474 0.772586643696 0.0629036873579 
-0.399075269699 1.59294712543 0.0842767879367 
-0.431598812342 2.27094554901 0.18787497282 
-0.239005327225 0.737289965153 0.32850959897 
-0.349838644266 0.800379812717 0.321746200323 
-0.334640949965 0.755281627178 0.231096297503 
-0.333245068789 1.39328050613 0.230151847005 
-0.258726865053 0.78903311491 0.332458138466 
-0.339769363403 1.4675886631 0.255765706301 
-0.343888014555 2.68749475479 0.323890775442 
-0.335934787989 2.08578681946 0.22774964571 
-0.116048201919 0.658066153526 0.465916216373 
0.0712593868375 0.425563901663 0.481587320566 
-0.044232968241 0.532559156418 0.537463665009 
-0.166940659285 0.745434701443 0.443863630295 
-0.21168936789 0.772010684013 0.35816809535 
-0.220047846437 2.29689478874 0.397104978561 
-0.138337016106 2.25532436371 0.439084619284 
-0.0804499313235 0.757836580276 0.391797721386 
-0.111857995391 1.973264575 0.407308250666 
0.195496380329 0.355007201433 0.617296457291 
-0.0449973270297 0.761159420013 0.458678424358 
0.0436659418046 0.777526199818 0.459548950195 
-0.059122916311 1.64454102516 0.41845947504 
-0.415289491415 2.70637822151 0.0590908676386 
-0.410074710846 2.10273790359 0.106136597693 
-0.365356296301 2.53996658325 0.209989279509 
-0.398036211729 1.7381850481 0.0795677825809 
-0.258513152599 2.61277842522 0.332527667284 
-0.336789935827 2.68672156334 0.226182475686 
-0.336664110422 2.76618432999 0.246442973614 
-0.243685886264 2.20000529289 0.327017247677 
-0.214548125863 2.1932091713 0.364669144154 
-0.205358594656 3.67704534531 0.429450035095 
-0.08590131253 2.20048046112 0.393548101187 
-0.0739423930645 2.17428016663 0.396845191717 
-0.0574892126024 2.63386535645 0.411975234747 
-0.398835659027 2.73371219635 0.0908453688025 
-0.44259890914 3.74193716049 0.13765245676 
-0.397941023111 3.73885178566 0.0551924295723 
-0.405331522226 3.74831819534 0.210308507085 
-0.332502573729 3.71370029449 0.224655836821 
-0.332684278488 3.72994017601 0.239537775517 
-0.228151455522 3.17121076584 0.332616657019 
[...]
POINT_DATA 507
VECTORS displacement double
0 0 0
0 0 0
0 0 0
0 0 0
0 0 0
0 0 0
0.000998188019223 0.00107955611176 -0.000390230879673
0.000269068219088 -2.89620293921e-05 8.15864704143e-05
0.000542569973313 7.50674040256e-05 8.4506670457e-06
0.00131330905034 0.0011776032437 -0.000524723872316
0.00159144607673 0.000990160678015 -0.00015204370197
0.000936555032426 0.00103789306654 -0.000816909949344
0 0 0
0.00119242920197 0.000732726282609 3.07020777211e-05
0.00199771754194 0.00194697854705 -0.0007091493783
0.000356209815268 -0.000124645159121 -0.000258845486104
0.000904851489991 0.00157155330498 -0.000826853707647
0.00465023282697 0.00500260162881 -0.00159751717141
0.00591949747102 0.00415558847456 -0.00183724122396
0.00750351396785 0.00367038592974 -0.000934848256592
0.00788286137733 0.00612163998993 -0.00267174099424
0.0566082416962 -0.00225108514858 -0.000641590750596
0.00883362854895 0.00447009060776 -0.00108829496843
0 0 0
0.000964295304549 5.39139875002e-05 0.000244221117745
0.00245854227341 0.000472508291127 -0.00019505351001
0.00522380546433 0.0027612319885 -0.000409573639868
0.00990937927537 0.00525324073402 -0.00192133580392
0.00927540741512 0.00265172881838 -0.000107790705555
0.00858750440447 0.00316706712024 -0.00575343052602
0.00974748180063 0.00146173226271 -0.000366472557517
0.0103781340245 0.00446408429615 -0.00147237148967
0.0443648279835 0.00165809931535 -0.0015462697951
0.0457148448586 -0.00151478253968 0.000631485622866
0.00685102613012 0.0022444174028 -0.000455874013616
0.0107631060965 0.00385131394812 -0.000993333801947
0.00998619291141 0.000793843828505 -0.000303806613003
0.0452718153122 -0.00548426885787 -5.82010550341e-05
0.0329402318798 0.000574495847693 0.00274755222559
0.0128232288624 -0.00221487556595 -0.00350649851249
0.0581914436945 -0.0065991743518 -0.00174680148079
0.052356209504 -0.00413273591761 0.00817805371311
0.0496832700432 -0.00285800881619 -0.00337867487535
0.00739165787256 -0.00118318617385 0.000882836708628
0.0339451663915 -0.0040260090114 0.000174593398279
0.0120546153174 0.000837450566124 -0.000509533552805
0.0133064098491 -0.00113084317164 0.0023400791806
0.0146818561476 -0.00216297408132 -0.000219457272449
0.0391058198147 -0.00538341305605 0.0011751885146
0.044197269376 -0.00774405374033 0.000156707184576
0.00266029619053 -0.00210249929359 0.000512792133345
0.00538504592171 -0.00243235311929 0.000536989942191
0.0148540541965 -0.00195039222621 -0.00120547768329
0.0503827455108 -0.0129185994027 -0.00136126576033
0.000466105674291 -9.1400864078e-06 -5.0732019986e-05
0.000979330257832 -0.000157546001994 -3.22146400566e-06
0.00902303841078 -0.00316081832647 -4.22790125689e-05
0.0236689813265 -0.00721441234377 0.0043116767649
0.0371308548647 -0.0106586012801 0.0020785773435
0.0523113654925 -0.000298280518392 -0.0014918178266
0.06408848895 -0.00453424184406 -0.00136550175232
0.050577470768 -0.00109377780346 -0.00178451512216
0.0606707939376 -0.00278464382843 -1.29531132048e-05
0.068677967111 -0.00869229774662 0.000117549469746
0.0767332882804 -0.0156227185806 -0.00899434381926
0.0672712750305 -0.0145178718521 -0.00164611120759
0.077408798318 -0.0207168129888 -0.00198525093497
0.05346688899 -0.0170848052631 -0.000405650676125
0.0752459838125 -0.0205023941094 -0.00594056705004
0.0972660648148 -0.0209624897242 -0.00462645981465
0.100268093975 -0.0241418570414 -0.00476904033621
0.0994768185181 -0.0235115716477 -0.00539406460283
0.0984385096418 -0.0246469168377 -0.00439784297094
0.0977608611212 -0.0252881532012 -0.00588550804477
0.100357298967 -0.0268381420961 -0.00658719928078
0.0745825100863 -0.0176406090863 -0.00902482191054
0.0979413229587 -0.023553709662 -0.00694233915387
0.0805017798318 -0.0187587148881 -0.00394154056988
0.0771520196956 -0.0185599726697 -0.00361044359328
0.101567401718 -0.0283399883617 -0.00658651016799
0.100142465673 -0.027595287732 -0.00711299349968
0.100431913433 -0.0289247850126 -0.00578611858251
0.0827245522253 -0.0239587629024 -0.0040307748487
0.0989618160918 -0.0303087353624 -0.00773398465327
0.100043092029 -0.0300838209967 -0.00474573655419
0.0995922428932 -0.0256538984343 -0.00501410072399
0.0984988790457 -0.0255028801268 -0.00388224648544
0.0999574417308 -0.0254150081808 -0.00287313295492
0.100494800744 -0.0259495243791 -0.00536133575603
0.102401045259 -0.029818937031 -0.0034799332415
0.103009236192 -0.0300888720879 -0.00435171241305
0.102563155381 -0.0317108210607 -0.00401083804707
0.104304970626 -0.0332465011565 -0.00513747207778
0.104371340317 -0.0334852502846 -0.00466246361667
0.103329221417 -0.0327088219037 -0.00254301344567
0.104107888215 -0.0356854942274 -0.00326479607775
0.103963677934 -0.0352300923296 -0.00200270425121
0.10397780199 -0.0387039925759 -0.0021373763313
0.104897722546 -0.0348791917635 -0.00452274737331
0.100030431324 -0.0254119908138 -0.0046453586158
0.100420173026 -0.0278632923315 -0.00633149438029
0.105031170734 -0.0328387178187 -0.00526581737942
0.102480978331 -0.0276288032039 -0.00609625496559
0.106176043797 -0.0348268068002 -0.00440296283615
0.105928469983 -0.0335264372445 -0.00468891796812
0.104693403596 -0.0323137622429 -0.00498132604415
0.101212537603 -0.0300933384863 -0.0060534846837
0.103207997909 -0.0310296656091 -0.00570011999582
0.106052385219 -0.0337940432438 -0.00440449891232
0.106836819109 -0.0345015096903 -0.00375776599994
0.101748057959 -0.0341497446205 -0.00448377859091
0.1 -0.05 0
0.1 -0.05 0
0.1 -0.05 0
0.100899188043 -0.0498689619216 0.000323154271396
0.103808218278 -0.0491817816274 0.000871561912827
0.103887939285 -0.045675836585 -0.000184943084416
0.100396463167 -0.0487378268674 -0.000636559561434
0.1 -0.05 0
0.100363667428 -0.049346676231 8.07450136745e-05
0.1 -0.05 0
0.1 -0.05 0
0.1 -0.05 0
0.1 -0.05 0
0.101099785082 -0.0479163482076 -3.76133887723e-05
0.1 -0.05 0
0.10241677987 -0.0450597443232 -0.000548136263165
0.102829985193 -0.0440281055743 -0.000545976476298
0.1 -0.05 0
0.104160627314 -0.0393792852052 -0.00106130603921
0.103667216849 -0.0413411950103 -0.00133195469636
0.104513150124 -0.0409023117196 -0.00159640970327
0.103732896288 -0.0431525625503 -0.00178752987512
0.104581895981 -0.0463904081259 -0.000470244642003
0.1 -0.05 0
0.1 -0.05 0
0.10499676343 -0.040200256831 -0.00177012878674
0.104246078559 -0.0428030831653 -0.000863696780941
0.137845314082 -0.0465777058884 -0.0569409161441
0.120736543301 -0.0565530165627 -0.0293514177329
0.101975312027 -0.0661502319931 0.000667563304606
0.1 -0.05 0
0.105899497457 -0.0389681337826 -0.00247694903514
0.106406596964 -0.0375127216058 -0.00314755845752
0.1 -0.05 0
0.098052419725 -0.0335061658375 -0.00070751107334
0.102454726726 -0.0414269770495 -0.000825554660673
0.101043476983 -0.044674447639 -0.00074906985096
0.106528553276 -0.0355939747424 -0.00331145736871
0.097056669311 -0.0374142384023 -0.00218605247429
0.105312537428 -0.036452162201 -0.00265675277213
0.100963867918 -0.0380836011675 -0.00110371602722
0.10356282404 -0.0374934058635 -0.00140425310014
0.106669010302 -0.0346550125622 -0.00290900521679
-0.000181856559718 0.000342085885332 -0.000597993103995
0.000249469231648 0.00057436743208 -0.000411194337389
-0.000536800335788 -0.00117751144706 0.00129461529252
0.000209158914198 0.000536064811738 -0.000521322739817
-0.000320065397339 -0.000322866731661 0.000417934976064
0.0021624688598 0.00296860497895 -0.00198803399579
-0.000601433124102 -0.00125235664464 0.00142531360516
-0.000377241875398 -0.000340304289126 0.00043432031279
0.000174154800295 -0.000699953564358 0.000141227764793
0.00428161786147 0.00187258695821 -0.00170315068097
0.00771390702181 0.00359186738957 -0.00257394559331
0.00812490483061 0.00573785878804 -0.00141865717244
0.0074296337572 0.00366101231175 -0.00147689141826
0.0082844666036 0.00449674513959 -0.00267086744588
0.0340723916266 0.0036964310675 0.00148879168497
0.0583510664174 -0.0025534234965 9.03445147452e-05
0.00142260663867 -0.000197201879406 -0.0026361612895
0.00370392868936 0.00364832062718 -0.00369228618992
0.00602298607694 0.00284685877954 -0.00166226325576
0.028376698534 -0.000793400977866 -0.00190456781984
0.00630066828026 0.00130856918391 0.00023627804794
0.0319922408875 -0.000859111526288 -0.00165301133561
0.0695454033631 -0.00910567810062 -0.00105109067936
0.0521813332351 -0.00428217603577 -0.000956079680498
0.00190650371299 -0.00230014944026 0.000546873500703
-1.72433610626e-05 -0.00364827726044 0.00151368131014
-0.000464020866784 -0.00346470606771 0.00145225857676
0.00511334389538 -0.00116721331593 0.000980198298587
0.00478941374432 -0.000660077140045 -0.00159741007598
0.0558774888468 -0.00891439124999 0.000627453852763
0.0549783091889 -0.011692617816 -0.00011994277569
0.00346742299554 -0.00367352997537 0.000255369770146
0.0464717346334 -0.0107951688788 0.0007860743557
0.000136034784359 -0.00222978785117 0.00212466681343
0.00556538002206 -0.00505289687651 0.00204880662579
0.00718661500127 -0.00679156173128 -0.000762528059108
0.0352040119403 -0.00934707782908 0.00232000357487
0.0695452915671 -0.00900367478357 -0.00199188502772
0.0513701006574 -0.00143106052209 -0.000871685227992
0.065121786538 -0.00698708374181 -0.000627094362059
0.0412341972567 0.00470879098121 0.00333928030753
0.0668934963406 -0.0112625063238 0.000354709361054
0.0700972798476 -0.0113290046746 -0.00108729494729
0.0726889718712 -0.0095387005352 -0.00109390282374
0.0568607831532 -0.00739619858946 0.00242659975034
0.0574862480409 -0.00795139027959 0.00261728136536
0.100515632784 -0.0248843003797 -0.00106448377419
0.0587711747889 -0.0125092579598 0.000968499979118
0.0575501613213 -0.0145425283398 0.00100617100783
0.0671143640682 -0.0177881102576 1.65526339563e-05
0.0711850603609 -0.00774638293032 8.36775502475e-05
0.0981886277684 -0.0233023569687 -0.00358100935504
0.0990953335479 -0.0231238556357 -0.00300285599602
0.0986269310268 -0.0238734652032 -0.00346225897115
0.0983442411944 -0.0240576376729 -0.00254088342972
0.0991593595936 -0.0243940477322 -0.00229487611952
0.084066995316 -0.0185462192521 -0.00179181668479
0.0990802615351 -0.0257040717171 -0.00287165258023
0.0796798238541 -0.0176185957292 -0.00140285507713
0.0989745184274 -0.0250670874578 -0.0027763447328
0.102517049908 -0.0268013150689 -0.00219434535939
0.0999952493193 -0.0271701578955 -0.00349816899365
0.0785942331022 -0.0220845913805 -0.00246225817339
0.102231353137 -0.0266317616604 -0.00304279657283
0.103545299883 -0.0293288328061 6.60606865599e-05
0.102748480615 -0.0321822823972 -0.00232819379708
0.10476822716 -0.0341914980916 -0.00065040542837
0.105061444222 -0.0344685870051 -0.00163645427065
0.102145697748 -0.0275815235796 -0.00151759622987
0.103872664583 -0.0299865633255 -0.00202992622132
0.105558222566 -0.0356397239687 -0.000289751289869
0.0994315798915 -0.0265409456344 -0.00227895295186
0.106375841908 -0.0346614573228 -0.0013368961154
0.0984188454281 -0.0236145123027 -0.00231658818996
0.100235505139 -0.0279293013855 -0.00194885771727
0.103045409517 -0.0292929455408 -0.00175272736613
0.106990556874 -0.0365818835709 -0.00104922002916
0.0996133210345 -0.0262597894048 -0.0029365835525
0.107824604144 -0.0360473432197 -0.00209483205795
0.105817261249 -0.0332635927708 -0.00315268791872
0.107709284431 -0.0385276567177 -0.00098454541883
0.107117252074 -0.0354548032263 -0.00337800209253
0.107537463913 -0.0355781933365 -0.00251495673021
0.104420961784 -0.0279439833336 -0.00186341507322
0.10346356565 -0.0327337095211 -0.00306577102642
0.105093127158 -0.0332946982388 -0.00350719440995
0.1 -0.05 0
0.1 -0.05 0
0.1 -0.05 0
0.1 -0.05 0
0.105492473952 -0.0502741553293 -0.000836493791424
0.103356857901 -0.0508026423691 -0.000103131512605
0.1 -0.05 0
0.1 -0.05 0
0.1 -0.05 0
0.1 -0.05 0
0.1 -0.05 0
0.1 -0.05 0
0.103798462484 -0.0464420728809 -0.00051552622344
0.105751327836 -0.0467849713666 -0.00134798352188
0.101149697208 -0.0482611592098 0.00018858426755
0.103706703616 -0.0422776379418 -0.000697387087258
0.1 -0.05 0
0.105115054711 -0.0419616898733 -0.000734941289189
0.104997043353 -0.0491981403358 -0.000846072473012
0.102104463209 -0.0465392823118 -0.000140531193525
0.101807968889 -0.048547501806 7.47342004214e-05
0.103543777163 -0.0933431625501 -0.0236574963396
0.114543610564 -0.052054682443 -0.00595260375517
0.0980423311777 -0.0550676601773 -0.00332458372099
0.106471462642 -0.0404451119987 -0.000369102046257
0.106175359036 -0.0457475626817 -0.00146245573
0.101762099743 -0.045024607208 0.000295139368006
0.1 -0.05 0
0.105009482448 -0.0438965707704 -0.000294885960151
0.10424138053 -0.041960898799 5.59007029957e-05
0.106804326683 -0.0407036056765 -0.000297816418265
0.102177505651 -0.0457264537614 -8.46548396678e-05
0.103772518544 -0.0427312246839 -0.000395927012326
0.106416120768 -0.0395558717492 -0.000803733104609
0.0996327993636 -0.0341864557264 -0.000373953501465
0.107065306373 -0.0377816579481 -0.00175569521605
0.104768530333 -0.0392479127696 -0.000974827947219
0.100096425291 -0.0394368728847 0.000106861581652
0 0 0
0.00054296503208 0.000135260287219 -0.000109184408454
0.000914774565021 0.000157522526925 0.000425579490361
0.00948865181056 -0.00499461801449 0.00412743940526
0.00450301344995 -0.00487170290738 0.000973546734123
-0.0140323885786 -0.0053551087665 0.0158989530973
0.0726647306465 -0.0168985739325 -0.00404166629992
0.00695323734802 -0.00788924878611 0.00151077803309
0.00911277528687 -0.00757720886813 0.00268223365108
0.00894065840742 -0.0108477480576 0.00382133456626
0.0115114396723 -0.00994239442611 0.00660130820308
0.0127151091564 -0.00902130548943 0.0015020763875
0.0119385725166 -0.00947247265793 0.00434541989382
0.0388405725832 -0.0164424430334 9.77232981132e-05
0.0432597160594 -0.0209446498631 0.00456681178564
0.00309472304761 -0.00482392527228 0.00182820657096
0.0131807922241 -0.0124238318462 0.00751830193121
0.0097837249773 -0.010419698066 0.00454943108167
0.038318492589 -0.0185648719024 0.00344175227
0.00133596453423 -0.00095105213777 0.000122238574935
0.0363094965816 -0.0192813293557 0.0035886767755
0.0120152219246 -0.0122297860048 0.00569376576184
0.0347825888022 -0.0214403664696 0.00875383478264
0.0489578605978 -0.0242149762154 0.00532834353921
0.0299667182527 -0.0187010928415 0.00691712518023
0.070084384914 -0.0339745469542 -0.00257488205153
0.00262317299592 -0.00208838019493 0.000579309398116
0.00753172666128 -0.0132640814053 0.0044866518374
0.0165485886198 -0.0161968963738 0.0166138332834
0.0153608709716 -0.0143112455536 0.017594737732
0.0133588011182 -0.0126071331805 0.0163055501277
0.0506564591397 -0.0276963447853 -0.0121097956957
0.0490757110287 -0.0277582656897 -0.030550194723
0.0569746646472 -0.0320526344141 0.0144679018022
0.0117778308998 -0.0179295362484 0.00228189873761
0 0 0
0.00658493231185 -0.0134776608622 0.00775143667737
0.00164021353012 -0.00050798616571 0.00102834153808
0.00228615806401 -0.00158704262611 0.00106741906305
0.0785967626984 -0.0217181725712 0.0189949240177
0.0568542365324 -0.0208386941294 -0.00921383174953
0.0644708465038 -0.0221000747517 -0.000716386755981
0.0753144902397 -0.0250832531213 0.000152024136571
0.0546038546706 -0.0233897537371 -0.00276600541748
0.0508552013082 -0.0236333541787 0.00375402796535
0.0363682065141 -0.0190136391843 0.00351801444407
0.0744825163174 -0.0298469094397 -0.00263152203632
0.0554940566167 -0.0263178717655 -0.00176918528545
0.0784873650684 -0.0370830116224 0.00144878490807
0.0690088829382 -0.0264590813762 0.00327685434213
0.0728778273812 -0.0298188933347 0.000824595326957
0.0709216186281 -0.0271025130411 0.00273998744685
-0.00139052213697 -0.0306925188009 0.0825061296146
0.0632251522657 -0.0321198441881 -0.0140204677244
0.0974647592744 -0.0326307609276 -0.00749474165645
0.0991642428362 -0.0333046897828 -0.00472771104187
0.10420798335 -0.0355904346802 -0.00484928530309
0.0836297109541 -0.0317355089929 -0.00359643291299
0.100075845322 -0.0352465745826 -0.00109489578169
0.0830714703762 -0.032078326992 -0.00375229705946
0.110249538832 -0.0402660887662 0.00491958552846
0.107918174377 -0.035815100637 0.00666444439878
0.101940347611 -0.0403077391663 5.48181023338e-05
0.119549692282 -0.0342888767597 0.0423125917061
0.103751962979 -0.0421939472025 0.00285838527916
0.0927279381732 -0.0330908559697 0.00528432148014
0.104951024295 -0.0345999013266 -0.00441492875659
0.103333739637 -0.0356347441118 -0.00435555416956
0.106270613124 -0.0342535406054 -0.00379189216282
0.106375133446 -0.0342696956943 -0.00343993338086
0.101539908643 -0.0354037372669 -0.00213331487747
0.101895910026 -0.0360687938179 -0.00537490042565
0.104116614111 -0.0382025443457 -0.0048458509314
0.105170087146 -0.035176789302 -0.0040842673014
0.0961249891364 -0.0341495119138 -0.000745150021969
0.107313187699 -0.039287888578 -0.0129144170464
0.102364246215 -0.03783762692 -0.00563247866472
0.10276987647 -0.0378214984542 -0.00448987753805
0.104755707625 -0.0361716045346 -0.00450970828923
0.105435339831 -0.0358100531325 -0.00407614477606
0.106085261636 -0.0351592357793 -0.00375856545507
0.104747495754 -0.0364120859739 -0.00496990752144
0.103525958431 -0.0386158509212 -0.00563126608498
0.105170202163 -0.036700587269 -0.00503935834252
0.104924318318 -0.0362159240951 -0.00536795949816
0.106274767745 -0.0335101465757 -0.00273476179492
0.1061957476 -0.0339446493656 -0.00328684773868
0.106147500558 -0.0357427223327 -0.00418580414438
0.105582349249 -0.035465936998 -0.00240530443273
0.104535645306 -0.0363638844111 -0.00192726681448
0.0296879681731 -0.00828009631525 -0.139498080888
0.100384239357 -0.0369309573383 -0.0382830197585
-0.0564369523941 0.0567371411024 0.0674401797284
0.104252897166 -0.0353774201842 -0.00173039546637
0.106798324559 -0.0341602928258 -0.00301746178349
0.1039574233 -0.0338653647097 -0.00176789736463
0.100847912071 -0.0337686302904 -0.00100755673675
0.101751011981 -0.0321490343937 -0.00125269477574
0.104958262686 -0.0328490583131 -0.00209811246444
0.101953365287 -0.0332951624786 -0.00123603957276
0.100164070807 -0.0334475483366 -0.00091439929775
0.105203560573 -0.0323068921432 -0.00218411456517
0.09858970629 -0.0304450316178 -0.000721231450502
0.105599904244 -0.0319013492602 -0.00233188139419
0.10184719053 -0.0308207958071 -0.00138941660892
0.100039635733 -0.0292822510974 -0.00115758781656
0.105503716926 -0.0327551242281 -0.00259606710399
0.104574874918 -0.0308137528168 -0.00214917700451
0.104148274153 -0.0321526254449 -0.00221472816848
0.105924913149 -0.0336570621738 -0.0031142140965
0.104788468333 -0.0301454886535 -0.00214076011541
0.105865176437 -0.0295885744828 -0.00250170549618
0.103796962464 -0.0319087528247 -0.00233382468832
0.101509908848 -0.030796098176 -0.00165431116896
0.101986513891 -0.0299911399834 -0.00155646429741
0.101442251207 -0.0291508434877 -0.00140959546903
0.103720816678 -0.0289784122294 -0.00187201629369
0.102144539917 -0.0286301398551 -0.00150287692378
0.100550214084 -0.0303033127434 -0.00149128385448
0.100778962199 -0.0295189909128 -0.00135653592727
0.0990208523828 -0.0272192146864 -0.00100930099549
0.0989194419353 -0.0303510888017 -0.000983046298487
0.103908906396 -0.0280126392561 -0.00192675323222
0.00607765731166 -0.00907778614879 0.00431868005022
5.70911302555e-05 -0.00360574400489 0.00314184955443
0.0047681871226 -0.00657262516068 -0.000749255553342
0.0333519161571 -0.0171975768432 -0.00134311431018
0.00364932584313 -0.0137010882074 0.00685659004018
0.0355126712224 -0.0135664824459 0.00135545424096
0.027613760218 -0.0148023858148 -0.00652527793071
-0.00607816425173 -0.0163325747844 -0.00961843994476
0.00114979483018 -0.00184778251251 0.00209677521815
-0.00116555336509 -0.0199395944952 -0.0667072730246
0.140050946761 -0.0161825226298 0.116831944486
0.124272838423 -0.0154786935877 0.129397179008
0.0763741173923 -0.0183321850035 0.0110162183703
0.00236524216821 -0.00271184989556 0.00245650695731
0.00212107802319 -0.0078135094595 0.00327288087891
0.00415230876498 -0.0185298364514 -0.0711317984035
0.0922245271084 -0.0181825320081 0.0611113726507
0.00249746810903 -0.0017666768168 0.00171437628446
-0.0508612152963 -0.0290597436436 0.0738955972356
0.000831653321069 -0.00708857888188 0.00992467313014