# vtk DataFile Version 2.0
VTK exported mesh
ASCII
DATASET UNSTRUCTURED_GRID
POINTS 0 double
CELLS 0 0
CELL_TYPES 0
POINT_DATA 0
SCALARS state double
LOOKUP_TABLE default
CELL_DATA 0
